//mumax 3.10 linux_amd64 go1.12.5 (gc)
//CUDA 10010 GeForce GTX 1080 Ti(11177MB) cc6.1 , using CC 61  PTX
//(c) Arne Vansteenkiste, Dynamat LAB, Ghent University, Belgium
//This is free software without any warranty. See license.txt
//********************************************************************//
//  If you use mumax in any work or publication,                      //
//  we kindly ask you to cite the references in references.bib        //
//********************************************************************//
//output directory: sp4.out/
setgridsize(256, 64, 1)
setcellsize(500e-9/256, 125e-9/64, 3e-9)
Msat = 1600e3
Aex = 13e-12
Msat = 800e3
alpha = 0.02
m = uniform(1, .1, 0)
tableadd(maxangle)
relax()
B_ext = vector(-24.6E-3, 4.3E-3, 0)
ext_savecellcenterlocs()
for t < 1e-9 {
	ext_saverodrigues()
	run(10e-12)
}
//********************************************************************//
//Please cite the following references, relevant for your simulation: //
//See bibtex file in output folder for justification.                 //
//********************************************************************//
//   * Vansteenkiste et al., AIP Adv. 4, 107133 (2014).
